Title: * spicenetlist
Date: Fri Jan 24 11:06:03  2020
Plotname: DC transfer characteristic
Flags: real
No. Variables: 3
No. Points: 500
Variables:
	0	v-sweep	voltage
	1	v(vcap1)	voltage
	2	i(i(v_v1))	current
Values:
 0	1.200000000000000e+002
	1.200000000000000e+002
	0.000000000000000e+000

 1	1.202400000000000e+002
	1.202400000000000e+002
	0.000000000000000e+000

 2	1.204800000000000e+002
	1.204800000000000e+002
	0.000000000000000e+000

 3	1.207200000000000e+002
	1.207200000000000e+002
	1.387778780781446e-017

 4	1.209600000000000e+002
	1.209600000000000e+002
	0.000000000000000e+000

 5	1.212000000000000e+002
	1.212000000000000e+002
	0.000000000000000e+000

 6	1.214400000000000e+002
	1.214400000000000e+002
	1.387778780781446e-017

 7	1.216800000000000e+002
	1.216800000000000e+002
	0.000000000000000e+000

 8	1.219200000000000e+002
	1.219200000000000e+002
	0.000000000000000e+000

 9	1.221600000000000e+002
	1.221600000000000e+002
	1.387778780781446e-017

 10	1.224000000000000e+002
	1.224000000000000e+002
	0.000000000000000e+000

 11	1.226399999999999e+002
	1.226399999999999e+002
	0.000000000000000e+000

 12	1.228799999999999e+002
	1.228800000000000e+002
	1.387778780781446e-017

 13	1.231199999999999e+002
	1.231199999999999e+002
	0.000000000000000e+000

 14	1.233599999999999e+002
	1.233599999999999e+002
	0.000000000000000e+000

 15	1.235999999999999e+002
	1.235999999999999e+002
	1.387778780781446e-017

 16	1.238399999999999e+002
	1.238399999999999e+002
	0.000000000000000e+000

 17	1.240799999999999e+002
	1.240799999999999e+002
	0.000000000000000e+000

 18	1.243199999999999e+002
	1.243199999999999e+002
	1.387778780781446e-017

 19	1.245599999999999e+002
	1.245599999999999e+002
	0.000000000000000e+000

 20	1.247999999999999e+002
	1.247999999999999e+002
	0.000000000000000e+000

 21	1.250399999999999e+002
	1.250399999999999e+002
	0.000000000000000e+000

 22	1.252799999999999e+002
	1.252799999999999e+002
	0.000000000000000e+000

 23	1.255199999999999e+002
	1.255199999999999e+002
	0.000000000000000e+000

 24	1.257599999999999e+002
	1.257599999999999e+002
	0.000000000000000e+000

 25	1.259999999999999e+002
	1.259999999999999e+002
	0.000000000000000e+000

 26	1.262399999999999e+002
	1.262399999999999e+002
	0.000000000000000e+000

 27	1.264799999999999e+002
	1.264799999999999e+002
	0.000000000000000e+000

 28	1.267199999999999e+002
	1.267199999999999e+002
	0.000000000000000e+000

 29	1.269599999999999e+002
	1.269599999999999e+002
	0.000000000000000e+000

 30	1.271999999999999e+002
	1.271999999999999e+002
	0.000000000000000e+000

 31	1.274399999999998e+002
	1.274399999999998e+002
	0.000000000000000e+000

 32	1.276799999999998e+002
	1.276799999999999e+002
	0.000000000000000e+000

 33	1.279199999999998e+002
	1.279199999999999e+002
	0.000000000000000e+000

 34	1.281599999999998e+002
	1.281599999999998e+002
	0.000000000000000e+000

 35	1.283999999999998e+002
	1.283999999999998e+002
	0.000000000000000e+000

 36	1.286399999999998e+002
	1.286399999999998e+002
	0.000000000000000e+000

 37	1.288799999999999e+002
	1.288799999999999e+002
	0.000000000000000e+000

 38	1.291199999999999e+002
	1.291199999999999e+002
	0.000000000000000e+000

 39	1.293599999999999e+002
	1.293599999999999e+002
	0.000000000000000e+000

 40	1.295999999999999e+002
	1.295999999999999e+002
	0.000000000000000e+000

 41	1.298399999999999e+002
	1.298399999999999e+002
	0.000000000000000e+000

 42	1.300799999999999e+002
	1.300799999999999e+002
	0.000000000000000e+000

 43	1.303199999999999e+002
	1.303199999999999e+002
	0.000000000000000e+000

 44	1.305599999999999e+002
	1.305599999999999e+002
	0.000000000000000e+000

 45	1.307999999999999e+002
	1.307999999999999e+002
	0.000000000000000e+000

 46	1.310399999999999e+002
	1.310399999999999e+002
	0.000000000000000e+000

 47	1.312799999999999e+002
	1.312799999999999e+002
	0.000000000000000e+000

 48	1.315200000000000e+002
	1.315200000000000e+002
	0.000000000000000e+000

 49	1.317600000000000e+002
	1.317600000000000e+002
	0.000000000000000e+000

 50	1.320000000000000e+002
	1.320000000000000e+002
	0.000000000000000e+000

 51	1.322400000000000e+002
	1.322400000000000e+002
	2.775557561562891e-017

 52	1.324800000000000e+002
	1.324800000000000e+002
	0.000000000000000e+000

 53	1.327200000000000e+002
	1.327200000000000e+002
	0.000000000000000e+000

 54	1.329600000000000e+002
	1.329600000000000e+002
	2.775557561562891e-017

 55	1.332000000000000e+002
	1.332000000000000e+002
	0.000000000000000e+000

 56	1.334400000000000e+002
	1.334400000000000e+002
	0.000000000000000e+000

 57	1.336800000000000e+002
	1.336800000000000e+002
	0.000000000000000e+000

 58	1.339200000000000e+002
	1.339200000000000e+002
	0.000000000000000e+000

 59	1.341600000000001e+002
	1.341600000000001e+002
	0.000000000000000e+000

 60	1.344000000000001e+002
	1.344000000000001e+002
	0.000000000000000e+000

 61	1.346400000000001e+002
	1.346400000000001e+002
	0.000000000000000e+000

 62	1.348800000000001e+002
	1.348800000000001e+002
	0.000000000000000e+000

 63	1.351200000000001e+002
	1.351200000000001e+002
	0.000000000000000e+000

 64	1.353600000000001e+002
	1.353600000000001e+002
	0.000000000000000e+000

 65	1.356000000000001e+002
	1.356000000000001e+002
	0.000000000000000e+000

 66	1.358400000000001e+002
	1.358400000000001e+002
	0.000000000000000e+000

 67	1.360800000000001e+002
	1.360800000000001e+002
	0.000000000000000e+000

 68	1.363200000000001e+002
	1.363200000000001e+002
	0.000000000000000e+000

 69	1.365600000000001e+002
	1.365600000000001e+002
	0.000000000000000e+000

 70	1.368000000000002e+002
	1.368000000000002e+002
	0.000000000000000e+000

 71	1.370400000000002e+002
	1.370400000000002e+002
	0.000000000000000e+000

 72	1.372800000000002e+002
	1.372800000000002e+002
	0.000000000000000e+000

 73	1.375200000000002e+002
	1.375200000000002e+002
	0.000000000000000e+000

 74	1.377600000000002e+002
	1.377600000000002e+002
	0.000000000000000e+000

 75	1.380000000000002e+002
	1.380000000000002e+002
	0.000000000000000e+000

 76	1.382400000000002e+002
	1.382400000000002e+002
	2.775557561562891e-017

 77	1.384800000000002e+002
	1.384800000000002e+002
	0.000000000000000e+000

 78	1.387200000000002e+002
	1.387200000000002e+002
	0.000000000000000e+000

 79	1.389600000000002e+002
	1.389600000000003e+002
	2.775557561562891e-017

 80	1.392000000000002e+002
	1.392000000000002e+002
	0.000000000000000e+000

 81	1.394400000000003e+002
	1.394400000000003e+002
	0.000000000000000e+000

 82	1.396800000000003e+002
	1.396800000000003e+002
	0.000000000000000e+000

 83	1.399200000000003e+002
	1.399200000000003e+002
	0.000000000000000e+000

 84	1.401600000000003e+002
	1.401600000000003e+002
	0.000000000000000e+000

 85	1.404000000000003e+002
	1.404000000000003e+002
	0.000000000000000e+000

 86	1.406400000000003e+002
	1.406400000000003e+002
	0.000000000000000e+000

 87	1.408800000000003e+002
	1.408800000000003e+002
	0.000000000000000e+000

 88	1.411200000000003e+002
	1.411200000000003e+002
	0.000000000000000e+000

 89	1.413600000000003e+002
	1.413600000000003e+002
	0.000000000000000e+000

 90	1.416000000000003e+002
	1.416000000000003e+002
	0.000000000000000e+000

 91	1.418400000000003e+002
	1.418400000000003e+002
	0.000000000000000e+000

 92	1.420800000000004e+002
	1.420800000000004e+002
	0.000000000000000e+000

 93	1.423200000000004e+002
	1.423200000000004e+002
	0.000000000000000e+000

 94	1.425600000000004e+002
	1.425600000000004e+002
	0.000000000000000e+000

 95	1.428000000000004e+002
	1.428000000000004e+002
	0.000000000000000e+000

 96	1.430400000000004e+002
	1.430400000000004e+002
	0.000000000000000e+000

 97	1.432800000000004e+002
	1.432800000000004e+002
	0.000000000000000e+000

 98	1.435200000000004e+002
	1.435200000000004e+002
	0.000000000000000e+000

 99	1.437600000000004e+002
	1.437600000000004e+002
	0.000000000000000e+000

 100	1.440000000000004e+002
	1.440000000000004e+002
	0.000000000000000e+000

 101	1.442400000000004e+002
	1.442400000000005e+002
	2.775557561562891e-017

 102	1.444800000000004e+002
	1.444800000000004e+002
	0.000000000000000e+000

 103	1.447200000000005e+002
	1.447200000000005e+002
	0.000000000000000e+000

 104	1.449600000000005e+002
	1.449600000000005e+002
	2.775557561562891e-017

 105	1.452000000000005e+002
	1.452000000000005e+002
	0.000000000000000e+000

 106	1.454400000000005e+002
	1.454400000000005e+002
	0.000000000000000e+000

 107	1.456800000000005e+002
	1.456800000000005e+002
	0.000000000000000e+000

 108	1.459200000000005e+002
	1.459200000000005e+002
	0.000000000000000e+000

 109	1.461600000000005e+002
	1.461600000000005e+002
	0.000000000000000e+000

 110	1.464000000000005e+002
	1.464000000000005e+002
	0.000000000000000e+000

 111	1.466400000000005e+002
	1.466400000000005e+002
	0.000000000000000e+000

 112	1.468800000000005e+002
	1.468800000000005e+002
	0.000000000000000e+000

 113	1.471200000000005e+002
	1.471200000000005e+002
	0.000000000000000e+000

 114	1.473600000000006e+002
	1.473600000000006e+002
	0.000000000000000e+000

 115	1.476000000000006e+002
	1.476000000000006e+002
	0.000000000000000e+000

 116	1.478400000000006e+002
	1.478400000000006e+002
	0.000000000000000e+000

 117	1.480800000000006e+002
	1.480800000000006e+002
	0.000000000000000e+000

 118	1.483200000000006e+002
	1.483200000000006e+002
	0.000000000000000e+000

 119	1.485600000000006e+002
	1.485600000000006e+002
	0.000000000000000e+000

 120	1.488000000000006e+002
	1.488000000000006e+002
	0.000000000000000e+000

 121	1.490400000000006e+002
	1.490400000000006e+002
	0.000000000000000e+000

 122	1.492800000000006e+002
	1.492800000000006e+002
	0.000000000000000e+000

 123	1.495200000000006e+002
	1.495200000000007e+002
	2.775557561562891e-017

 124	1.497600000000006e+002
	1.497600000000006e+002
	0.000000000000000e+000

 125	1.500000000000007e+002
	1.500000000000007e+002
	0.000000000000000e+000

 126	1.502400000000007e+002
	1.502400000000007e+002
	2.775557561562891e-017

 127	1.504800000000007e+002
	1.504800000000007e+002
	0.000000000000000e+000

 128	1.507200000000007e+002
	1.507200000000007e+002
	0.000000000000000e+000

 129	1.509600000000007e+002
	1.509600000000007e+002
	2.775557561562891e-017

 130	1.512000000000007e+002
	1.512000000000007e+002
	0.000000000000000e+000

 131	1.514400000000007e+002
	1.514400000000007e+002
	0.000000000000000e+000

 132	1.516800000000007e+002
	1.516800000000007e+002
	0.000000000000000e+000

 133	1.519200000000007e+002
	1.519200000000007e+002
	0.000000000000000e+000

 134	1.521600000000007e+002
	1.521600000000007e+002
	0.000000000000000e+000

 135	1.524000000000007e+002
	1.524000000000007e+002
	0.000000000000000e+000

 136	1.526400000000008e+002
	1.526400000000008e+002
	0.000000000000000e+000

 137	1.528800000000008e+002
	1.528800000000008e+002
	0.000000000000000e+000

 138	1.531200000000008e+002
	1.531200000000008e+002
	0.000000000000000e+000

 139	1.533600000000008e+002
	1.533600000000008e+002
	0.000000000000000e+000

 140	1.536000000000008e+002
	1.536000000000008e+002
	0.000000000000000e+000

 141	1.538400000000008e+002
	1.538400000000008e+002
	0.000000000000000e+000

 142	1.540800000000008e+002
	1.540800000000008e+002
	0.000000000000000e+000

 143	1.543200000000008e+002
	1.543200000000008e+002
	0.000000000000000e+000

 144	1.545600000000008e+002
	1.545600000000008e+002
	0.000000000000000e+000

 145	1.548000000000008e+002
	1.548000000000008e+002
	0.000000000000000e+000

 146	1.550400000000008e+002
	1.550400000000008e+002
	0.000000000000000e+000

 147	1.552800000000009e+002
	1.552800000000009e+002
	0.000000000000000e+000

 148	1.555200000000009e+002
	1.555200000000009e+002
	2.775557561562891e-017

 149	1.557600000000009e+002
	1.557600000000009e+002
	0.000000000000000e+000

 150	1.560000000000009e+002
	1.560000000000009e+002
	0.000000000000000e+000

 151	1.562400000000009e+002
	1.562400000000009e+002
	2.775557561562891e-017

 152	1.564800000000009e+002
	1.564800000000009e+002
	0.000000000000000e+000

 153	1.567200000000009e+002
	1.567200000000009e+002
	0.000000000000000e+000

 154	1.569600000000009e+002
	1.569600000000010e+002
	2.775557561562891e-017

 155	1.572000000000009e+002
	1.572000000000009e+002
	0.000000000000000e+000

 156	1.574400000000009e+002
	1.574400000000009e+002
	0.000000000000000e+000

 157	1.576800000000009e+002
	1.576800000000009e+002
	0.000000000000000e+000

 158	1.579200000000010e+002
	1.579200000000010e+002
	0.000000000000000e+000

 159	1.581600000000010e+002
	1.581600000000010e+002
	0.000000000000000e+000

 160	1.584000000000010e+002
	1.584000000000010e+002
	0.000000000000000e+000

 161	1.586400000000010e+002
	1.586400000000010e+002
	0.000000000000000e+000

 162	1.588800000000010e+002
	1.588800000000010e+002
	0.000000000000000e+000

 163	1.591200000000010e+002
	1.591200000000010e+002
	0.000000000000000e+000

 164	1.593600000000010e+002
	1.593600000000010e+002
	0.000000000000000e+000

 165	1.596000000000010e+002
	1.596000000000010e+002
	0.000000000000000e+000

 166	1.598400000000010e+002
	1.598400000000010e+002
	0.000000000000000e+000

 167	1.600800000000010e+002
	1.600800000000010e+002
	0.000000000000000e+000

 168	1.603200000000010e+002
	1.603200000000010e+002
	0.000000000000000e+000

 169	1.605600000000011e+002
	1.605600000000011e+002
	0.000000000000000e+000

 170	1.608000000000011e+002
	1.608000000000011e+002
	0.000000000000000e+000

 171	1.610400000000011e+002
	1.610400000000011e+002
	0.000000000000000e+000

 172	1.612800000000011e+002
	1.612800000000011e+002
	0.000000000000000e+000

 173	1.615200000000011e+002
	1.615200000000011e+002
	2.775557561562891e-017

 174	1.617600000000011e+002
	1.617600000000011e+002
	0.000000000000000e+000

 175	1.620000000000011e+002
	1.620000000000011e+002
	0.000000000000000e+000

 176	1.622400000000011e+002
	1.622400000000012e+002
	2.775557561562891e-017

 177	1.624800000000011e+002
	1.624800000000011e+002
	0.000000000000000e+000

 178	1.627200000000011e+002
	1.627200000000011e+002
	0.000000000000000e+000

 179	1.629600000000011e+002
	1.629600000000012e+002
	2.775557561562891e-017

 180	1.632000000000012e+002
	1.632000000000012e+002
	0.000000000000000e+000

 181	1.634400000000012e+002
	1.634400000000012e+002
	0.000000000000000e+000

 182	1.636800000000012e+002
	1.636800000000012e+002
	0.000000000000000e+000

 183	1.639200000000012e+002
	1.639200000000012e+002
	0.000000000000000e+000

 184	1.641600000000012e+002
	1.641600000000012e+002
	0.000000000000000e+000

 185	1.644000000000012e+002
	1.644000000000012e+002
	0.000000000000000e+000

 186	1.646400000000012e+002
	1.646400000000012e+002
	0.000000000000000e+000

 187	1.648800000000012e+002
	1.648800000000012e+002
	0.000000000000000e+000

 188	1.651200000000012e+002
	1.651200000000012e+002
	0.000000000000000e+000

 189	1.653600000000012e+002
	1.653600000000012e+002
	0.000000000000000e+000

 190	1.656000000000012e+002
	1.656000000000012e+002
	0.000000000000000e+000

 191	1.658400000000013e+002
	1.658400000000013e+002
	0.000000000000000e+000

 192	1.660800000000013e+002
	1.660800000000013e+002
	0.000000000000000e+000

 193	1.663200000000013e+002
	1.663200000000013e+002
	0.000000000000000e+000

 194	1.665600000000013e+002
	1.665600000000013e+002
	0.000000000000000e+000

 195	1.668000000000013e+002
	1.668000000000013e+002
	0.000000000000000e+000

 196	1.670400000000013e+002
	1.670400000000013e+002
	0.000000000000000e+000

 197	1.672800000000013e+002
	1.672800000000013e+002
	0.000000000000000e+000

 198	1.675200000000013e+002
	1.675200000000014e+002
	2.775557561562891e-017

 199	1.677600000000013e+002
	1.677600000000013e+002
	0.000000000000000e+000

 200	1.680000000000013e+002
	1.680000000000013e+002
	0.000000000000000e+000

 201	1.682400000000013e+002
	1.682400000000014e+002
	2.775557561562891e-017

 202	1.684800000000014e+002
	1.684800000000014e+002
	0.000000000000000e+000

 203	1.687200000000014e+002
	1.687200000000014e+002
	0.000000000000000e+000

 204	1.689600000000014e+002
	1.689600000000014e+002
	2.775557561562891e-017

 205	1.692000000000014e+002
	1.692000000000014e+002
	0.000000000000000e+000

 206	1.694400000000014e+002
	1.694400000000014e+002
	0.000000000000000e+000

 207	1.696800000000014e+002
	1.696800000000014e+002
	0.000000000000000e+000

 208	1.699200000000014e+002
	1.699200000000014e+002
	0.000000000000000e+000

 209	1.701600000000014e+002
	1.701600000000014e+002
	0.000000000000000e+000

 210	1.704000000000014e+002
	1.704000000000014e+002
	0.000000000000000e+000

 211	1.706400000000014e+002
	1.706400000000014e+002
	0.000000000000000e+000

 212	1.708800000000014e+002
	1.708800000000014e+002
	0.000000000000000e+000

 213	1.711200000000015e+002
	1.711200000000015e+002
	0.000000000000000e+000

 214	1.713600000000015e+002
	1.713600000000015e+002
	0.000000000000000e+000

 215	1.716000000000015e+002
	1.716000000000015e+002
	0.000000000000000e+000

 216	1.718400000000015e+002
	1.718400000000015e+002
	0.000000000000000e+000

 217	1.720800000000015e+002
	1.720800000000015e+002
	0.000000000000000e+000

 218	1.723200000000015e+002
	1.723200000000015e+002
	0.000000000000000e+000

 219	1.725600000000015e+002
	1.725600000000015e+002
	0.000000000000000e+000

 220	1.728000000000015e+002
	1.728000000000015e+002
	0.000000000000000e+000

 221	1.730400000000015e+002
	1.730400000000015e+002
	0.000000000000000e+000

 222	1.732800000000015e+002
	1.732800000000015e+002
	0.000000000000000e+000

 223	1.735200000000016e+002
	1.735200000000016e+002
	2.775557561562891e-017

 224	1.737600000000016e+002
	1.737600000000016e+002
	0.000000000000000e+000

 225	1.740000000000016e+002
	1.740000000000016e+002
	0.000000000000000e+000

 226	1.742400000000016e+002
	1.742400000000016e+002
	2.775557561562891e-017

 227	1.744800000000016e+002
	1.744800000000016e+002
	0.000000000000000e+000

 228	1.747200000000016e+002
	1.747200000000016e+002
	0.000000000000000e+000

 229	1.749600000000016e+002
	1.749600000000016e+002
	2.775557561562891e-017

 230	1.752000000000016e+002
	1.752000000000016e+002
	0.000000000000000e+000

 231	1.754400000000016e+002
	1.754400000000016e+002
	0.000000000000000e+000

 232	1.756800000000016e+002
	1.756800000000016e+002
	0.000000000000000e+000

 233	1.759200000000016e+002
	1.759200000000016e+002
	0.000000000000000e+000

 234	1.761600000000017e+002
	1.761600000000017e+002
	0.000000000000000e+000

 235	1.764000000000017e+002
	1.764000000000017e+002
	0.000000000000000e+000

 236	1.766400000000017e+002
	1.766400000000017e+002
	0.000000000000000e+000

 237	1.768800000000017e+002
	1.768800000000017e+002
	0.000000000000000e+000

 238	1.771200000000017e+002
	1.771200000000017e+002
	0.000000000000000e+000

 239	1.773600000000017e+002
	1.773600000000017e+002
	0.000000000000000e+000

 240	1.776000000000017e+002
	1.776000000000017e+002
	0.000000000000000e+000

 241	1.778400000000017e+002
	1.778400000000017e+002
	0.000000000000000e+000

 242	1.780800000000017e+002
	1.780800000000017e+002
	0.000000000000000e+000

 243	1.783200000000017e+002
	1.783200000000017e+002
	0.000000000000000e+000

 244	1.785600000000017e+002
	1.785600000000017e+002
	0.000000000000000e+000

 245	1.788000000000018e+002
	1.788000000000018e+002
	0.000000000000000e+000

 246	1.790400000000018e+002
	1.790400000000018e+002
	0.000000000000000e+000

 247	1.792800000000018e+002
	1.792800000000018e+002
	0.000000000000000e+000

 248	1.795200000000018e+002
	1.795200000000018e+002
	2.775557561562891e-017

 249	1.797600000000018e+002
	1.797600000000018e+002
	0.000000000000000e+000

 250	1.800000000000018e+002
	1.800000000000018e+002
	0.000000000000000e+000

 251	1.802400000000018e+002
	1.802400000000018e+002
	2.775557561562891e-017

 252	1.804800000000018e+002
	1.804800000000018e+002
	0.000000000000000e+000

 253	1.807200000000018e+002
	1.807200000000018e+002
	0.000000000000000e+000

 254	1.809600000000018e+002
	1.809600000000019e+002
	2.775557561562891e-017

 255	1.812000000000018e+002
	1.812000000000018e+002
	0.000000000000000e+000

 256	1.814400000000019e+002
	1.814400000000019e+002
	0.000000000000000e+000

 257	1.816800000000019e+002
	1.816800000000019e+002
	0.000000000000000e+000

 258	1.819200000000019e+002
	1.819200000000019e+002
	0.000000000000000e+000

 259	1.821600000000019e+002
	1.821600000000019e+002
	0.000000000000000e+000

 260	1.824000000000019e+002
	1.824000000000019e+002
	0.000000000000000e+000

 261	1.826400000000019e+002
	1.826400000000019e+002
	0.000000000000000e+000

 262	1.828800000000019e+002
	1.828800000000019e+002
	0.000000000000000e+000

 263	1.831200000000019e+002
	1.831200000000019e+002
	0.000000000000000e+000

 264	1.833600000000019e+002
	1.833600000000019e+002
	0.000000000000000e+000

 265	1.836000000000019e+002
	1.836000000000019e+002
	0.000000000000000e+000

 266	1.838400000000019e+002
	1.838400000000019e+002
	0.000000000000000e+000

 267	1.840800000000020e+002
	1.840800000000020e+002
	0.000000000000000e+000

 268	1.843200000000020e+002
	1.843200000000020e+002
	0.000000000000000e+000

 269	1.845600000000020e+002
	1.845600000000020e+002
	0.000000000000000e+000

 270	1.848000000000020e+002
	1.848000000000020e+002
	0.000000000000000e+000

 271	1.850400000000020e+002
	1.850400000000020e+002
	0.000000000000000e+000

 272	1.852800000000020e+002
	1.852800000000020e+002
	0.000000000000000e+000

 273	1.855200000000020e+002
	1.855200000000020e+002
	2.775557561562891e-017

 274	1.857600000000020e+002
	1.857600000000020e+002
	0.000000000000000e+000

 275	1.860000000000020e+002
	1.860000000000020e+002
	0.000000000000000e+000

 276	1.862400000000020e+002
	1.862400000000021e+002
	2.775557561562891e-017

 277	1.864800000000020e+002
	1.864800000000020e+002
	0.000000000000000e+000

 278	1.867200000000021e+002
	1.867200000000021e+002
	0.000000000000000e+000

 279	1.869600000000021e+002
	1.869600000000021e+002
	2.775557561562891e-017

 280	1.872000000000021e+002
	1.872000000000021e+002
	0.000000000000000e+000

 281	1.874400000000021e+002
	1.874400000000021e+002
	0.000000000000000e+000

 282	1.876800000000021e+002
	1.876800000000021e+002
	0.000000000000000e+000

 283	1.879200000000021e+002
	1.879200000000021e+002
	0.000000000000000e+000

 284	1.881600000000021e+002
	1.881600000000021e+002
	0.000000000000000e+000

 285	1.884000000000021e+002
	1.884000000000021e+002
	0.000000000000000e+000

 286	1.886400000000021e+002
	1.886400000000021e+002
	0.000000000000000e+000

 287	1.888800000000021e+002
	1.888800000000021e+002
	0.000000000000000e+000

 288	1.891200000000021e+002
	1.891200000000021e+002
	0.000000000000000e+000

 289	1.893600000000022e+002
	1.893600000000022e+002
	0.000000000000000e+000

 290	1.896000000000022e+002
	1.896000000000022e+002
	0.000000000000000e+000

 291	1.898400000000022e+002
	1.898400000000022e+002
	0.000000000000000e+000

 292	1.900800000000022e+002
	1.900800000000022e+002
	0.000000000000000e+000

 293	1.903200000000022e+002
	1.903200000000022e+002
	0.000000000000000e+000

 294	1.905600000000022e+002
	1.905600000000022e+002
	0.000000000000000e+000

 295	1.908000000000022e+002
	1.908000000000022e+002
	0.000000000000000e+000

 296	1.910400000000022e+002
	1.910400000000022e+002
	0.000000000000000e+000

 297	1.912800000000022e+002
	1.912800000000022e+002
	0.000000000000000e+000

 298	1.915200000000022e+002
	1.915200000000023e+002
	2.775557561562891e-017

 299	1.917600000000022e+002
	1.917600000000022e+002
	0.000000000000000e+000

 300	1.920000000000023e+002
	1.920000000000023e+002
	0.000000000000000e+000

 301	1.922400000000023e+002
	1.922400000000023e+002
	2.775557561562891e-017

 302	1.924800000000023e+002
	1.924800000000023e+002
	0.000000000000000e+000

 303	1.927200000000023e+002
	1.927200000000023e+002
	0.000000000000000e+000

 304	1.929600000000023e+002
	1.929600000000023e+002
	2.775557561562891e-017

 305	1.932000000000023e+002
	1.932000000000023e+002
	0.000000000000000e+000

 306	1.934400000000023e+002
	1.934400000000023e+002
	0.000000000000000e+000

 307	1.936800000000023e+002
	1.936800000000023e+002
	0.000000000000000e+000

 308	1.939200000000023e+002
	1.939200000000023e+002
	0.000000000000000e+000

 309	1.941600000000023e+002
	1.941600000000023e+002
	0.000000000000000e+000

 310	1.944000000000023e+002
	1.944000000000023e+002
	0.000000000000000e+000

 311	1.946400000000024e+002
	1.946400000000024e+002
	0.000000000000000e+000

 312	1.948800000000024e+002
	1.948800000000024e+002
	0.000000000000000e+000

 313	1.951200000000024e+002
	1.951200000000024e+002
	0.000000000000000e+000

 314	1.953600000000024e+002
	1.953600000000024e+002
	0.000000000000000e+000

 315	1.956000000000024e+002
	1.956000000000024e+002
	0.000000000000000e+000

 316	1.958400000000024e+002
	1.958400000000024e+002
	0.000000000000000e+000

 317	1.960800000000024e+002
	1.960800000000024e+002
	0.000000000000000e+000

 318	1.963200000000024e+002
	1.963200000000024e+002
	0.000000000000000e+000

 319	1.965600000000024e+002
	1.965600000000024e+002
	0.000000000000000e+000

 320	1.968000000000024e+002
	1.968000000000024e+002
	0.000000000000000e+000

 321	1.970400000000024e+002
	1.970400000000024e+002
	0.000000000000000e+000

 322	1.972800000000025e+002
	1.972800000000025e+002
	0.000000000000000e+000

 323	1.975200000000025e+002
	1.975200000000025e+002
	2.775557561562891e-017

 324	1.977600000000025e+002
	1.977600000000025e+002
	0.000000000000000e+000

 325	1.980000000000025e+002
	1.980000000000025e+002
	0.000000000000000e+000

 326	1.982400000000025e+002
	1.982400000000025e+002
	2.775557561562891e-017

 327	1.984800000000025e+002
	1.984800000000025e+002
	0.000000000000000e+000

 328	1.987200000000025e+002
	1.987200000000025e+002
	0.000000000000000e+000

 329	1.989600000000025e+002
	1.989600000000025e+002
	2.775557561562891e-017

 330	1.992000000000025e+002
	1.992000000000025e+002
	0.000000000000000e+000

 331	1.994400000000025e+002
	1.994400000000025e+002
	0.000000000000000e+000

 332	1.996800000000025e+002
	1.996800000000025e+002
	0.000000000000000e+000

 333	1.999200000000026e+002
	1.999200000000026e+002
	0.000000000000000e+000

 334	2.001600000000026e+002
	2.001600000000026e+002
	0.000000000000000e+000

 335	2.004000000000026e+002
	2.004000000000026e+002
	0.000000000000000e+000

 336	2.006400000000026e+002
	2.006400000000026e+002
	0.000000000000000e+000

 337	2.008800000000026e+002
	2.008800000000026e+002
	0.000000000000000e+000

 338	2.011200000000026e+002
	2.011200000000026e+002
	0.000000000000000e+000

 339	2.013600000000026e+002
	2.013600000000026e+002
	0.000000000000000e+000

 340	2.016000000000026e+002
	2.016000000000026e+002
	0.000000000000000e+000

 341	2.018400000000026e+002
	2.018400000000026e+002
	0.000000000000000e+000

 342	2.020800000000026e+002
	2.020800000000026e+002
	0.000000000000000e+000

 343	2.023200000000026e+002
	2.023200000000026e+002
	0.000000000000000e+000

 344	2.025600000000027e+002
	2.025600000000027e+002
	0.000000000000000e+000

 345	2.028000000000027e+002
	2.028000000000027e+002
	2.775557561562891e-017

 346	2.030400000000027e+002
	2.030400000000027e+002
	0.000000000000000e+000

 347	2.032800000000027e+002
	2.032800000000027e+002
	0.000000000000000e+000

 348	2.035200000000027e+002
	2.035200000000027e+002
	2.775557561562891e-017

 349	2.037600000000027e+002
	2.037600000000027e+002
	0.000000000000000e+000

 350	2.040000000000027e+002
	2.040000000000027e+002
	0.000000000000000e+000

 351	2.042400000000027e+002
	2.042400000000027e+002
	2.775557561562891e-017

 352	2.044800000000027e+002
	2.044800000000027e+002
	0.000000000000000e+000

 353	2.047200000000027e+002
	2.047200000000027e+002
	0.000000000000000e+000

 354	2.049600000000027e+002
	2.049600000000028e+002
	2.775557561562891e-017

 355	2.052000000000028e+002
	2.052000000000028e+002
	0.000000000000000e+000

 356	2.054400000000028e+002
	2.054400000000028e+002
	0.000000000000000e+000

 357	2.056800000000028e+002
	2.056800000000028e+002
	0.000000000000000e+000

 358	2.059200000000028e+002
	2.059200000000028e+002
	0.000000000000000e+000

 359	2.061600000000028e+002
	2.061600000000028e+002
	0.000000000000000e+000

 360	2.064000000000028e+002
	2.064000000000028e+002
	0.000000000000000e+000

 361	2.066400000000028e+002
	2.066400000000028e+002
	0.000000000000000e+000

 362	2.068800000000028e+002
	2.068800000000028e+002
	0.000000000000000e+000

 363	2.071200000000028e+002
	2.071200000000028e+002
	0.000000000000000e+000

 364	2.073600000000028e+002
	2.073600000000028e+002
	0.000000000000000e+000

 365	2.076000000000028e+002
	2.076000000000028e+002
	0.000000000000000e+000

 366	2.078400000000029e+002
	2.078400000000029e+002
	0.000000000000000e+000

 367	2.080800000000029e+002
	2.080800000000029e+002
	0.000000000000000e+000

 368	2.083200000000029e+002
	2.083200000000029e+002
	0.000000000000000e+000

 369	2.085600000000029e+002
	2.085600000000029e+002
	0.000000000000000e+000

 370	2.088000000000029e+002
	2.088000000000029e+002
	2.775557561562891e-017

 371	2.090400000000029e+002
	2.090400000000029e+002
	0.000000000000000e+000

 372	2.092800000000029e+002
	2.092800000000029e+002
	0.000000000000000e+000

 373	2.095200000000029e+002
	2.095200000000029e+002
	2.775557561562891e-017

 374	2.097600000000029e+002
	2.097600000000029e+002
	0.000000000000000e+000

 375	2.100000000000029e+002
	2.100000000000029e+002
	0.000000000000000e+000

 376	2.102400000000029e+002
	2.102400000000030e+002
	2.775557561562891e-017

 377	2.104800000000030e+002
	2.104800000000030e+002
	0.000000000000000e+000

 378	2.107200000000030e+002
	2.107200000000030e+002
	0.000000000000000e+000

 379	2.109600000000030e+002
	2.109600000000030e+002
	2.775557561562891e-017

 380	2.112000000000030e+002
	2.112000000000030e+002
	0.000000000000000e+000

 381	2.114400000000030e+002
	2.114400000000030e+002
	0.000000000000000e+000

 382	2.116800000000030e+002
	2.116800000000030e+002
	0.000000000000000e+000

 383	2.119200000000030e+002
	2.119200000000030e+002
	0.000000000000000e+000

 384	2.121600000000030e+002
	2.121600000000030e+002
	0.000000000000000e+000

 385	2.124000000000030e+002
	2.124000000000030e+002
	0.000000000000000e+000

 386	2.126400000000030e+002
	2.126400000000030e+002
	0.000000000000000e+000

 387	2.128800000000030e+002
	2.128800000000030e+002
	0.000000000000000e+000
