Title: * spicenetlist
Date: Fri Jan 24 16:05:58  2020
Plotname: AC Analysis
Flags: complex
No. Variables: 5
No. Points: 4350
Variables:
	0	frequency	frequency grid=3
	1	v(vcap1)	voltage
	2	cph(v(vcap1))	voltage
	3	v(out)	voltage
	4	i(i(v_v1))	current
Values:
 0	1.000000000000000e+000,0.000000000000000e+000
	2.399999050107306e+002,-1.507963875373014e-001
	-6.283184474033635e-004,0.0
	2.411047037061029e-005,-1.514905530296195e-008
	-9.498926942241859e-008,-1.507963875373014e-004

 1	1.004615790278395e+000,0.000000000000000e+000
	2.399999041340369e+002,-1.514924314835278e-001
	-6.312186328160331e-004,0.0
	2.411047028253735e-005,-1.521898010956295e-008
	-9.586596305677375e-008,-1.514924314835278e-004

 2	1.009252886076685e+000,0.000000000000000e+000
	2.399999032492314e+002,-1.521916882149361e-001
	-6.341322048656441e-004,0.0
	2.411047019364950e-005,-1.528922767363310e-008
	-9.675076859116949e-008,-1.521916882149361e-004

 3	1.013911385736680e+000,0.000000000000000e+000
	2.399999023562388e+002,-1.528941725609620e-001
	-6.370592253419561e-004,0.0
	2.411047010393916e-005,-1.535979948494242e-008
	-9.764376115994899e-008,-1.528941725609620e-004

 4	1.018591388054117e+000,0.000000000000000e+000
	2.399999014549836e+002,-1.535998994194889e-001
	-6.399997563199354e-004,0.0
	2.411047001339876e-005,-1.543069704013727e-008
	-9.854501642481139e-008,-1.535998994194889e-004

 5	1.023292992280754e+000,0.000000000000000e+000
	2.399999005453890e+002,-1.543088837571644e-001
	-6.429538601610719e-004,0.0
	2.411046992202058e-005,-1.550192184277204e-008
	-9.945461101890096e-008,-1.543088837571644e-004

 6	1.028016298126474e+000,0.000000000000000e+000
	2.399998996273781e+002,-1.550211406097176e-001
	-6.459215995146998e-004,0.0
	2.411046982979691e-005,-1.557347540334108e-008
	-1.003726218806733e-007,-1.550211406097176e-004

 7	1.032761405761398e+000,0.000000000000000e+000
	2.399998987008730e+002,-1.557366850822776e-001
	-6.489030373193283e-004,0.0
	2.411046973671989e-005,-1.564535923931068e-008
	-1.012991270310515e-007,-1.557366850822777e-004

 8	1.037528415818013e+000,0.000000000000000e+000
	2.399998977657950e+002,-1.564555323496941e-001
	-6.518982368039746e-004,0.0
	2.411046964278165e-005,-1.571757487515131e-008
	-1.022342049628033e-007,-1.564555323496941e-004

 9	1.042317429393305e+000,0.000000000000000e+000
	2.399998968220649e+002,-1.571776976568592e-001
	-6.549072614895063e-004,0.0
	2.411046954797421e-005,-1.579012384236989e-008
	-1.031779350846307e-007,-1.571776976568592e-004

 10	1.047128548050900e+000,0.000000000000000e+000
	2.399998958696025e+002,-1.579031963190304e-001
	-6.579301751899870e-004,0.0
	2.411046945228952e-005,-1.586300767954230e-008
	-1.041303974713692e-007,-1.579031963190304e-004

 11	1.051961873823224e+000,0.000000000000000e+000
	2.399998949083272e+002,-1.586320437221559e-001
	-6.609670420140312e-004,0.0
	2.411046935571948e-005,-1.593622793234602e-008
	-1.050916728084772e-007,-1.586320437221559e-004

 12	1.056817509213659e+000,0.000000000000000e+000
	2.399998939381572e+002,-1.593642553232003e-001
	-6.640179263661622e-004,0.0
	2.411046925825588e-005,-1.600978615359285e-008
	-1.060618427528581e-007,-1.593642553232003e-004

 13	1.061695557198725e+000,0.000000000000000e+000
	2.399998929590105e+002,-1.600998466504726e-001
	-6.670828929481795e-004,0.0
	2.411046915989047e-005,-1.608368390326190e-008
	-1.070409895442825e-007,-1.600998466504726e-004

 14	1.066596121230259e+000,0.000000000000000e+000
	2.399998919708037e+002,-1.608388333039557e-001
	-6.701620067605293e-004,0.0
	2.411046906061489e-005,-1.615792274853262e-008
	-1.080291963106994e-007,-1.608388333039557e-004

 15	1.071519305237607e+000,0.000000000000000e+000
	2.399998909734532e+002,-1.615812309556370e-001
	-6.732553331036847e-004,0.0
	2.411046896042073e-005,-1.623250426381810e-008
	-1.090265467629248e-007,-1.615812309556370e-004

 16	1.076465213629836e+000,0.000000000000000e+000
	2.399998899668744e+002,-1.623270553498404e-001
	-6.763629375795287e-004,0.0
	2.411046885929948e-005,-1.630743003079836e-008
	-1.100331256109755e-007,-1.623270553498404e-004

 17	1.081433951297939e+000,0.000000000000000e+000
	2.399998889509818e+002,-1.630763223035609e-001
	-6.794848860927473e-004,0.0
	2.411046875724258e-005,-1.638270163845400e-008
	-1.110490182032464e-007,-1.630763223035609e-004

 18	1.086425623617066e+000,0.000000000000000e+000
	2.399998879256893e+002,-1.638290477067995e-001
	-6.826212448522255e-004,0.0
	2.411046865424135e-005,-1.645832068309978e-008
	-1.120743106652888e-007,-1.638290477067996e-004

 19	1.091440336448758e+000,0.000000000000000e+000
	2.399998868909098e+002,-1.645852475229004e-001
	-6.857720803724528e-004,0.0
	2.411046855028706e-005,-1.653428876841859e-008
	-1.131090901496101e-007,-1.645852475229004e-004

 20	1.096478196143186e+000,0.000000000000000e+000
	2.399998858465558e+002,-1.653449377888891e-001
	-6.889374594749319e-004,0.0
	2.411046844537090e-005,-1.661060750549535e-008
	-1.141534442250514e-007,-1.653449377888891e-004

 21	1.101539309541416e+000,0.000000000000000e+000
	2.399998847925383e+002,-1.661081346158129e-001
	-6.921174492895983e-004,0.0
	2.411046833948396e-005,-1.668727851285123e-008
	-1.152074616539434e-007,-1.661081346158129e-004

 22	1.106623783977668e+000,0.000000000000000e+000
	2.399998837287683e+002,-1.668748541890826e-001
	-6.953121172562416e-004,0.0
	2.411046823261727e-005,-1.676430341647801e-008
	-1.162712317259729e-007,-1.668748541890826e-004

 23	1.111731727281593e+000,0.000000000000000e+000
	2.399998826551552e+002,-1.676451127688153e-001
	-6.985215311259370e-004,0.0
	2.411046812476174e-005,-1.684168384987244e-008
	-1.173448447577830e-007,-1.676451127688152e-004

 24	1.116863247780563e+000,0.000000000000000e+000
	2.399998815716082e+002,-1.684189266901794e-001
	-7.017457589624816e-004,0.0
	2.411046801590825e-005,-1.691942145407100e-008
	-1.184283917876616e-007,-1.684189266901794e-004

 25	1.122018454301965e+000,0.000000000000000e+000
	2.399998804780352e+002,-1.691963123637411e-001
	-7.049848691438378e-004,0.0
	2.411046790604754e-005,-1.699751787768462e-008
	-1.195219647420753e-007,-1.691963123637411e-004

 26	1.127197456175512e+000,0.000000000000000e+000
	2.399998793743436e+002,-1.699772862758125e-001
	-7.082389303635840e-004,0.0
	2.411046779517032e-005,-1.707597477693370e-008
	-1.206256564079133e-007,-1.699772862758125e-004

 27	1.132400363235559e+000,0.000000000000000e+000
	2.399998782604396e+002,-1.707618649888006e-001
	-7.115080116323704e-004,0.0
	2.411046768326715e-005,-1.715479381568318e-008
	-1.217395603492211e-007,-1.707618649888007e-004

 28	1.137627285823432e+000,0.000000000000000e+000
	2.399998771362288e+002,-1.715500651415594e-001
	-7.147921822793834e-004,0.0
	2.411046757032856e-005,-1.723397666547785e-008
	-1.228637711570002e-007,-1.715500651415594e-004

 29	1.142878334789773e+000,0.000000000000000e+000
	2.399998760016158e+002,-1.723419034497417e-001
	-7.180915119538155e-004,0.0
	2.411046745634496e-005,-1.731352500557778e-008
	-1.239983841716530e-007,-1.723419034497417e-004

 30	1.148153621496884e+000,0.000000000000000e+000
	2.399998748565044e+002,-1.731373967061547e-001
	-7.214060706263417e-004,0.0
	2.411046734130668e-005,-1.739344052299396e-008
	-1.251434955940045e-007,-1.731373967061547e-004

 31	1.153453257821094e+000,0.000000000000000e+000
	2.399998737007975e+002,-1.739365617811151e-001
	-7.247359285906043e-004,0.0
	2.411046722520398e-005,-1.747372491252402e-008
	-1.262992025408138e-007,-1.739365617811151e-004

 32	1.158777356155128e+000,0.000000000000000e+000
	2.399998725343968e+002,-1.747394156228074e-001
	-7.280811564647036e-004,0.0
	2.411046710802699e-005,-1.755437987678822e-008
	-1.274656031557964e-007,-1.747394156228074e-004

 33	1.164126029410493e+000,0.000000000000000e+000
	2.399998713572037e+002,-1.755459752576431e-001
	-7.314418251926950e-004,0.0
	2.411046698976577e-005,-1.763540712626554e-008
	-1.286427963043124e-007,-1.755459752576431e-004

 34	1.169499391019873e+000,0.000000000000000e+000
	2.399998701691181e+002,-1.763562577906220e-001
	-7.348180060460937e-004,0.0
	2.411046687041030e-005,-1.771680837932995e-008
	-1.298308818509231e-007,-1.763562577906220e-004

 35	1.174897554939532e+000,0.000000000000000e+000
	2.399998689700393e+002,-1.771702804056943e-001
	-7.382097706253851e-004,0.0
	2.411046674995045e-005,-1.779858536228679e-008
	-1.310299606593901e-007,-1.771702804056943e-004

 36	1.180320635651732e+000,0.000000000000000e+000
	2.399998677598656e+002,-1.779880603661256e-001
	-7.416171908615454e-004,0.0
	2.411046662837599e-005,-1.788073980940949e-008
	-1.322401343706314e-007,-1.779880603661256e-004

 37	1.185768748167162e+000,0.000000000000000e+000
	2.399998665384943e+002,-1.788096150148629e-001
	-7.450403390175655e-004,0.0
	2.411046650567662e-005,-1.796327346297628e-008
	-1.334615057080324e-007,-1.788096150148629e-004

 38	1.191242008027377e+000,0.000000000000000e+000
	2.399998653058218e+002,-1.796349617749021e-001
	-7.484792876899840e-004,0.0
	2.411046638184193e-005,-1.804618807330712e-008
	-1.346941781998901e-007,-1.796349617749021e-004

 39	1.196740531307246e+000,0.000000000000000e+000
	2.399998640617435e+002,-1.804641181496575e-001
	-7.519341098104259e-004,0.0
	2.411046625686141e-005,-1.812948539880086e-008
	-1.359382564569689e-007,-1.804641181496575e-004

 40	1.202264434617415e+000,0.000000000000000e+000
	2.399998628061540e+002,-1.812971017233332e-001
	-7.554048786471506e-004,0.0
	2.411046613072447e-005,-1.821316720597247e-008
	-1.371938460059674e-007,-1.812971017233332e-004

 41	1.207813835106783e+000,0.000000000000000e+000
	2.399998615389466e+002,-1.821339301612957e-001
	-7.588916678066045e-004,0.0
	2.411046600342039e-005,-1.829723526949056e-008
	-1.384610534005404e-007,-1.821339301612957e-004

 42	1.213388850464980e+000,0.000000000000000e+000
	2.399998602600139e+002,-1.829746212104486e-001
	-7.623945512349824e-004,0.0
	2.411046587493839e-005,-1.838169137221498e-008
	-1.397399861380322e-007,-1.829746212104486e-004

 43	1.218989598924869e+000,0.000000000000000e+000
	2.399998589692474e+002,-1.838191926996091e-001
	-7.659136032197962e-004,0.0
	2.411046574526756e-005,-1.846653730523464e-008
	-1.410307525762100e-007,-1.838191926996091e-004

 44	1.224616199265052e+000,0.000000000000000e+000
	2.399998576665376e+002,-1.846676625398855e-001
	-7.694488983914493e-004,0.0
	2.411046561439689e-005,-1.855177486790546e-008
	-1.423334624328643e-007,-1.846676625398855e-004

 45	1.230268770812385e+000,0.000000000000000e+000
	2.399998563517740e+002,-1.855200487250580e-001
	-7.730005117248198e-004,0.0
	2.411046548231531e-005,-1.863740586788856e-008
	-1.436482260364080e-007,-1.855200487250580e-004

 46	1.235947433444514e+000,0.000000000000000e+000
	2.399998550248450e+002,-1.863763693319591e-001
	-7.765685185408504e-004,0.0
	2.411046534901158e-005,-1.872343212118857e-008
	-1.449751549642553e-007,-1.863763693319591e-004

 47	1.241652307592414e+000,0.000000000000000e+000
	2.399998536856382e+002,-1.872366425208577e-001
	-7.801529945081461e-004,0.0
	2.411046521447442e-005,-1.880985545219215e-008
	-1.463143617930207e-007,-1.872366425208577e-004

 48	1.247383514242946e+000,0.000000000000000e+000
	2.399998523340398e+002,-1.881008865358439e-001
	-7.837540156445778e-004,0.0
	2.411046507869239e-005,-1.889667769370667e-008
	-1.476659602095420e-007,-1.881008865358439e-004

 49	1.253141174941419e+000,0.000000000000000e+000
	2.399998509699352e+002,-1.889691197052161e-001
	-7.873716583188961e-004,0.0
	2.411046494165400e-005,-1.898390068699907e-008
	-1.490300647610798e-007,-1.889691197052161e-004

 50	1.258925411794171e+000,0.000000000000000e+000
	2.399998495932088e+002,-1.898413604418693e-001
	-7.910059992523490e-004,0.0
	2.411046480334760e-005,-1.907152628183494e-008
	-1.504067911883844e-007,-1.898413604418693e-004

 51	1.264736347471155e+000,0.000000000000000e+000
	2.399998482037437e+002,-1.907176272436855e-001
	-7.946571155203097e-004,0.0
	2.411046466376147e-005,-1.915955633651765e-008
	-1.517962563146735e-007,-1.907176272436855e-004

 52	1.270574105208546e+000,0.000000000000000e+000
	2.399998468014221e+002,-1.915979386939268e-001
	-7.983250845539120e-004,0.0
	2.411046452288377e-005,-1.924799271792789e-008
	-1.531985779346101e-007,-1.915979386939268e-004

 53	1.276438808811348e+000,0.000000000000000e+000
	2.399998453861249e+002,-1.924823134616281e-001
	-8.020099841416904e-004,0.0
	2.411046438070255e-005,-1.933683730156315e-008
	-1.546138750641024e-007,-1.924823134616281e-004

 54	1.282330582656026e+000,0.000000000000000e+000
	2.399998439577322e+002,-1.933707703019940e-001
	-8.057118924312315e-004,0.0
	2.411046423720574e-005,-1.942609197157750e-008
	-1.560422678292817e-007,-1.933707703019940e-004

 55	1.288249551693138e+000,0.000000000000000e+000
	2.399998425161227e+002,-1.942633280567963e-001
	-8.094308879308307e-004,0.0
	2.411046409238117e-005,-1.951575862082161e-008
	-1.574838773277243e-007,-1.942633280567963e-004

 56	1.294195841449990e+000,0.000000000000000e+000
	2.399998410611742e+002,-1.951600056547730e-001
	-8.131670495111563e-004,0.0
	2.411046394621656e-005,-1.960583915088283e-008
	-1.589388258227409e-007,-1.951600056547730e-004

 57	1.300169578033295e+000,0.000000000000000e+000
	2.399998395927632e+002,-1.960608221120307e-001
	-8.169204564069237e-004,0.0
	2.411046379869951e-005,-1.969633547212553e-008
	-1.604072367433762e-007,-1.960608221120307e-004

 58	1.306170888131846e+000,0.000000000000000e+000
	2.399998381107653e+002,-1.969657965324467e-001
	-8.206911882185740e-004,0.0
	2.411046364981750e-005,-1.978724950373160e-008
	-1.618892346844092e-007,-1.969657965324467e-004

 59	1.312199899019208e+000,0.000000000000000e+000
	2.399998366150545e+002,-1.978749481080747e-001
	-8.244793249139631e-004,0.0
	2.411046349955790e-005,-1.987858317374115e-008
	-1.633849454618641e-007,-1.978749481080747e-004

 60	1.318256738556412e+000,0.000000000000000e+000
	2.399998351055042e+002,-1.987882961195517e-001
	-8.282849468300569e-004,0.0
	2.411046334790797e-005,-1.997033841909339e-008
	-1.648944957799436e-007,-1.987882961195517e-004

 61	1.324341535194669e+000,0.000000000000000e+000
	2.399998335819862e+002,-1.997058599365071e-001
	-8.321081346746363e-004,0.0
	2.411046319485485e-005,-2.006251718566772e-008
	-1.664180137583848e-007,-1.997058599365071e-004

 62	1.330454417978096e+000,0.000000000000000e+000
	2.399998320443713e+002,-2.006276590179727e-001
	-8.359489695280069e-004,0.0
	2.411046304038554e-005,-2.015512142832497e-008
	-1.679556287104145e-007,-2.006276590179727e-004

 63	1.336595516546447e+000,0.000000000000000e+000
	2.399998304925290e+002,-2.015537129127958e-001
	-8.398075328447194e-004,0.0
	2.411046288448694e-005,-2.024815311094887e-008
	-1.695074710039712e-007,-2.015537129127958e-004

 64	1.342764961137869e+000,0.000000000000000e+000
	2.399998289263277e+002,-2.024840412600540e-001
	-8.436839064552972e-004,0.0
	2.411046272714584e-005,-2.034161420648765e-008
	-1.710736722837503e-007,-2.024840412600540e-004

 65	1.348962882591659e+000,0.000000000000000e+000
	2.399998273456345e+002,-2.034186637894710e-001
	-8.475781725679716e-004,0.0
	2.411046256834888e-005,-2.043550669699595e-008
	-1.726543654712032e-007,-2.034186637894711e-004

 66	1.355189412351041e+000,0.000000000000000e+000
	2.399998257503154e+002,-2.043576003218354e-001
	-8.514904137704241e-004,0.0
	2.411046240808259e-005,-2.052983257367679e-008
	-1.742496845702490e-007,-2.043576003218354e-004

 67	1.361444682465955e+000,0.000000000000000e+000
	2.399998241402351e+002,-2.053008707694207e-001
	-8.554207130315396e-004,0.0
	2.411046224633339e-005,-2.062459383692380e-008
	-1.758597648893190e-007,-2.053008707694207e-004

 68	1.367728825595855e+000,0.000000000000000e+000
	2.399998225152568e+002,-2.062484951364077e-001
	-8.593691537031642e-004,0.0
	2.411046208308752e-005,-2.071979249636362e-008
	-1.774847431801341e-007,-2.062484951364077e-004

 69	1.374041975012521e+000,0.000000000000000e+000
	2.399998208752428e+002,-2.072004935193088e-001
	-8.633358195218743e-004,0.0
	2.411046191833117e-005,-2.081543057089861e-008
	-1.791247571658605e-007,-2.072004935193088e-004

 70	1.380384264602891e+000,0.000000000000000e+000
	2.399998192200540e+002,-2.081568861073939e-001
	-8.673207946107515e-004,0.0
	2.411046175205035e-005,-2.091151008874953e-008
	-1.807799459851989e-007,-2.081568861073939e-004

 71	1.386755828871894e+000,0.000000000000000e+000
	2.399998175495499e+002,-2.091176931831184e-001
	-8.713241634811660e-004,0.0
	2.411046158423096e-005,-2.100803308749861e-008
	-1.824504500536062e-007,-2.091176931831185e-004

 72	1.393156802945309e+000,0.000000000000000e+000
	2.399998158635889e+002,-2.100829351225539e-001
	-8.753460110345703e-004,0.0
	2.411046141485875e-005,-2.110500161413276e-008
	-1.841364110910515e-007,-2.100829351225539e-004

 73	1.399587322572624e+000,0.000000000000000e+000
	2.399998141620280e+002,-2.110526323958193e-001
	-8.793864225642983e-004,0.0
	2.411046124391937e-005,-2.120241772508699e-008
	-1.858379720387493e-007,-2.110526323958193e-004

 74	1.406047524129920e+000,0.000000000000000e+000
	2.399998124447226e+002,-2.120268055675156e-001
	-8.834454837573747e-004,0.0
	2.411046107139831e-005,-2.130028348628792e-008
	-1.875552773922262e-007,-2.120268055675156e-004

 75	1.412537544622760e+000,0.000000000000000e+000
	2.399998107115273e+002,-2.130054752971617e-001
	-8.875232806963322e-004,0.0
	2.411046089728092e-005,-2.139860097319771e-008
	-1.892884727294764e-007,-2.130054752971617e-004

 76	1.419057521689098e+000,0.000000000000000e+000
	2.399998089622949e+002,-2.139886623396325e-001
	-8.916198998610368e-004,0.0
	2.411046072155246e-005,-2.149737227085803e-008
	-1.910377050717838e-007,-2.139886623396325e-004

 77	1.425607593602195e+000,0.000000000000000e+000
	2.399998071968771e+002,-2.149763875455989e-001
	-8.957354281305214e-004,0.0
	2.411046054419800e-005,-2.159659947393418e-008
	-1.928031228837224e-007,-2.149763875455989e-004

 78	1.432187899273550e+000,0.000000000000000e+000
	2.399998054151241e+002,-2.159686718619700e-001
	-8.998699527848290e-004,0.0
	2.411046036520250e-005,-2.169628468675965e-008
	-1.945848758511115e-007,-2.159686718619700e-004

 79	1.438798578255852e+000,0.000000000000000e+000
	2.399998036168848e+002,-2.169655363323372e-001
	-9.040235615068627e-004,0.0
	2.411046018455078e-005,-2.179643002338063e-008
	-1.963831151585715e-007,-2.169655363323372e-004

 80	1.445439770745934e+000,0.000000000000000e+000
	2.399998018020067e+002,-2.179670020974207e-001
	-9.081963423842464e-004,0.0
	2.411046000222752e-005,-2.189703760760091e-008
	-1.981979933229905e-007,-2.179670020974207e-004

 81	1.452111617587749e+000,0.000000000000000e+000
	2.399997999703356e+002,-2.189730903955170e-001
	-9.123883839111907e-004,0.0
	2.411045981821724e-005,-2.199810957302683e-008
	-2.000296643600574e-007,-2.189730903955171e-004

 82	1.458814260275355e+000,0.000000000000000e+000
	2.399997981217164e+002,-2.199838225629504e-001
	-9.165997749903723e-004,0.0
	2.411045963250433e-005,-2.209964806311263e-008
	-2.018782835899735e-007,-2.199838225629504e-004

 83	1.465547840955919e+000,0.000000000000000e+000
	2.399997962559922e+002,-2.209992200345242e-001
	-9.208306049348164e-004,0.0
	2.411045944507305e-005,-2.220165523120579e-008
	-2.037440078317410e-007,-2.209992200345243e-004

 84	1.472312502432726e+000,0.000000000000000e+000
	2.399997943730046e+002,-2.220193043439760e-001
	-9.250809634697931e-004,0.0
	2.411045925590749e-005,-2.230413324059277e-008
	-2.056269954309187e-007,-2.220193043439760e-004

 85	1.479108388168215e+000,0.000000000000000e+000
	2.399997924725940e+002,-2.230440971244341e-001
	-9.293509407347192e-004,0.0
	2.411045906499161e-005,-2.240708426454482e-008
	-2.075274060375776e-007,-2.230440971244341e-004

 86	1.485935642287014e+000,0.000000000000000e+000
	2.399997905545991e+002,-2.240736201088761e-001
	-9.336406272850693e-004,0.0
	2.411045887230921e-005,-2.251051048636412e-008
	-2.094454008283453e-007,-2.240736201088761e-004

 87	1.492794409579004e+000,0.000000000000000e+000
	2.399997886188573e+002,-2.251078951305896e-001
	-9.379501140942965e-004,0.0
	2.411045867784394e-005,-2.261441409943001e-008
	-2.113811426729395e-007,-2.251078951305896e-004

 88	1.499684835502381e+000,0.000000000000000e+000
	2.399997866652043e+002,-2.261469441236358e-001
	-9.422794925557625e-004,0.0
	2.411045848157932e-005,-2.271879730724558e-008
	-2.133347956345677e-007,-2.261469441236358e-004

 89	1.506607066186750e+000,0.000000000000000e+000
	2.399997846934744e+002,-2.271907891233135e-001
	-9.466288544846740e-004,0.0
	2.411045828349867e-005,-2.282366232348429e-008
	-2.153065255527942e-007,-2.271907891233135e-004

 90	1.513561248436216e+000,0.000000000000000e+000
	2.399997827035004e+002,-2.282394522666273e-001
	-9.509982921200305e-004,0.0
	2.411045808358522e-005,-2.292901137203699e-008
	-2.172964995716953e-007,-2.282394522666273e-004

 91	1.520547529732504e+000,0.000000000000000e+000
	2.399997806951134e+002,-2.292929557927567e-001
	-9.553878981265818e-004,0.0
	2.411045788182199e-005,-2.303484668705905e-008
	-2.193048865839486e-007,-2.292929557927567e-004

 92	1.527566058238081e+000,0.000000000000000e+000
	2.399997786681430e+002,-2.303513220435271e-001
	-9.597977655967900e-004,0.0
	2.411045767819187e-005,-2.314117051301770e-008
	-2.213318569532774e-007,-2.303513220435271e-004

 93	1.534616982799302e+000,0.000000000000000e+000
	2.399997766224174e+002,-2.314145734638846e-001
	-9.642279880528072e-004,0.0
	2.411045747267760e-005,-2.324798510473970e-008
	-2.233775825699613e-007,-2.314145734638846e-004

 94	1.541700452949568e+000,0.000000000000000e+000
	2.399997745577629e+002,-2.324827326023708e-001
	-9.686786594484556e-004,0.0
	2.411045726526172e-005,-2.335529272745903e-008
	-2.254422370728815e-007,-2.324827326023708e-004

 95	1.548816618912490e+000,0.000000000000000e+000
	2.399997724740045e+002,-2.335558221116016e-001
	-9.731498741712219e-004,0.0
	2.411045705592665e-005,-2.346309565686505e-008
	-2.275259954886977e-007,-2.335558221116017e-004

 96	1.555965631605083e+000,0.000000000000000e+000
	2.399997703709653e+002,-2.346338647487475e-001
	-9.776417270442584e-004,0.0
	2.411045684465463e-005,-2.357139617915067e-008
	-2.296290347036933e-007,-2.346338647487475e-004

 97	1.563147642640963e+000,0.000000000000000e+000
	2.399997682484670e+002,-2.357168833760155e-001
	-9.821543133283926e-004,0.0
	2.411045663142775e-005,-2.368019659106082e-008
	-2.317515330196862e-007,-2.357168833760155e-004

 98	1.570362804333561e+000,0.000000000000000e+000
	2.399997661063295e+002,-2.368049009611346e-001
	-9.866877287241500e-004,0.0
	2.411045641622790e-005,-2.378949919994120e-008
	-2.338936705148509e-007,-2.368049009611346e-004

 99	1.577611269699358e+000,0.000000000000000e+000
	2.399997639443710e+002,-2.378979405778425e-001
	-9.912420693737811e-004,0.0
	2.411045619903683e-005,-2.389930632378719e-008
	-2.360556289882076e-007,-2.378979405778425e-004

 100	1.584893192461123e+000,0.000000000000000e+000
	2.399997617624082e+002,-2.389960254063747e-001
	-9.958174318633010e-004,0.0
	2.411045597983613e-005,-2.400962029129296e-008
	-2.382375917653334e-007,-2.389960254063747e-004

 101	1.592208727051180e+000,0.000000000000000e+000
	2.399997595602561e+002,-2.400991787339561e-001
	-1.000413913224538e-003,0.0
	2.411045575860719e-005,-2.412044344190089e-008
	-2.404397438926509e-007,-2.400991787339562e-004

 102	1.599558028614678e+000,0.000000000000000e+000
	2.399997573377277e+002,-2.412074239552949e-001
	-1.005031610937191e-003,0.0
	2.411045553533124e-005,-2.423177812585114e-008
	-2.426622723317173e-007,-2.412074239552949e-004

 103	1.606941253012887e+000,0.000000000000000e+000
	2.399997550946345e+002,-2.423207845730784e-001
	-1.009670622930896e-003,0.0
	2.411045530998935e-005,-2.434362670423150e-008
	-2.449053655428912e-007,-2.423207845730784e-004

 104	1.614358556826496e+000,0.000000000000000e+000
	2.399997528307863e+002,-2.434392841984718e-001
	-1.014331047587304e-003,0.0
	2.411045508256242e-005,-2.445599154902751e-008
	-2.471692136518655e-007,-2.434392841984718e-004

 105	1.621810097358940e+000,0.000000000000000e+000
	2.399997505459910e+002,-2.445629465516176e-001
	-1.019012983742167e-003,0.0
	2.411045485303111e-005,-2.456887504317256e-008
	-2.494540090325348e-007,-2.445629465516176e-004

 106	1.629296032639733e+000,0.000000000000000e+000
	2.399997482400548e+002,-2.456917954621405e-001
	-1.023716530687433e-003,0.0
	2.411045462137600e-005,-2.468227958059869e-008
	-2.517599451967723e-007,-2.456917954621405e-004

 107	1.636816521427819e+000,0.000000000000000e+000
	2.399997459127821e+002,-2.468258548696507e-001
	-1.028441788173352e-003,0.0
	2.411045438757741e-005,-2.479620756628713e-008
	-2.540872179046527e-007,-2.468258548696507e-004

 108	1.644371723214942e+000,0.000000000000000e+000
	2.399997435639754e+002,-2.479651488242529e-001
	-1.033188856410593e-003,0.0
	2.411045415161551e-005,-2.491066141631937e-008
	-2.564360245815855e-007,-2.479651488242529e-004

 109	1.651961798229026e+000,0.000000000000000e+000
	2.399997411934356e+002,-2.491097014870554e-001
	-1.037957836072365e-003,0.0
	2.411045391347029e-005,-2.502564355792842e-008
	-2.588065644293369e-007,-2.491097014870554e-004

 110	1.659586907437572e+000,0.000000000000000e+000
	2.399997388009615e+002,-2.502595371306828e-001
	-1.042748828296558e-003,0.0
	2.411045367312154e-005,-2.514115642955022e-008
	-2.611990385092966e-007,-2.502595371306828e-004

 111	1.667247212551074e+000,0.000000000000000e+000
	2.399997363863500e+002,-2.514146801397903e-001
	-1.047561934687881e-003,0.0
	2.411045343054887e-005,-2.525720248087537e-008
	-2.636136499367670e-007,-2.514146801397903e-004

 112	1.674942876026448e+000,0.000000000000000e+000
	2.399997339493966e+002,-2.525751550115813e-001
	-1.052397257320021e-003,0.0
	2.411045318573172e-005,-2.537378417290106e-008
	-2.660506033813626e-007,-2.525751550115814e-004

 113	1.682674061070479e+000,0.000000000000000e+000
	2.399997314898943e+002,-2.537409863563262e-001
	-1.057254898737808e-003,0.0
	2.411045293864930e-005,-2.549090397798324e-008
	-2.685101056498773e-007,-2.537409863563262e-004

 114	1.690440931643276e+000,0.000000000000000e+000
	2.399997290076347e+002,-2.549121988978844e-001
	-1.062134961959384e-003,0.0
	2.411045268928067e-005,-2.560856437988908e-008
	-2.709923653254620e-007,-2.549121988978844e-004

 115	1.698243652461756e+000,0.000000000000000e+000
	2.399997265024069e+002,-2.560888174742285e-001
	-1.067037550478396e-003,0.0
	2.411045243760465e-005,-2.572676787384957e-008
	-2.734975930729355e-007,-2.560888174742285e-004

 116	1.706082389003135e+000,0.000000000000000e+000
	2.399997239739987e+002,-2.572708670379713e-001
	-1.071962768266185e-003,0.0
	2.411045218359992e-005,-2.584551696661250e-008
	-2.760260013057181e-007,-2.572708670379712e-004

 117	1.713957307508437e+000,0.000000000000000e+000
	2.399997214221954e+002,-2.584583726568940e-001
	-1.076910719773988e-003,0.0
	2.411045192724492e-005,-2.596481417649552e-008
	-2.785778045744092e-007,-2.584583726568940e-004

 118	1.721868574986019e+000,0.000000000000000e+000
	2.399997188467807e+002,-2.596513595144788e-001
	-1.081881509935163e-003,0.0
	2.411045166851789e-005,-2.608466203343963e-008
	-2.811532193169875e-007,-2.596513595144788e-004

 119	1.729816359215114e+000,0.000000000000000e+000
	2.399997162475359e+002,-2.608498529104421e-001
	-1.086875244167405e-003,0.0
	2.411045140739690e-005,-2.620506307906276e-008
	-2.837524640530997e-007,-2.608498529104420e-004

 120	1.737800828749388e+000,0.000000000000000e+000
	2.399997136242407e+002,-2.620538782612707e-001
	-1.091892028374985e-003,0.0
	2.411045114385979e-005,-2.632601986671365e-008
	-2.863757592452831e-007,-2.620538782612707e-004

 121	1.745822152920517e+000,0.000000000000000e+000
	2.399997109766726e+002,-2.632634611007614e-001
	-1.096931968950996e-003,0.0
	2.411045087788421e-005,-2.644753496152603e-008
	-2.890233274099874e-007,-2.632634611007614e-004

 122	1.753880501841774e+000,0.000000000000000e+000
	2.399997083046068e+002,-2.644786270805623e-001
	-1.101995172779608e-003,0.0
	2.411045060944759e-005,-2.656961094047298e-008
	-2.916953932008415e-007,-2.644786270805622e-004

 123	1.761976046411642e+000,0.000000000000000e+000
	2.399997056078168e+002,-2.656994019707158e-001
	-1.107081747238336e-003,0.0
	2.411045033852717e-005,-2.669225039242158e-008
	-2.943921831866092e-007,-2.656994019707158e-004

 124	1.770108958317434e+000,0.000000000000000e+000
	2.399997028860738e+002,-2.669258116602061e-001
	-1.112191800200316e-003,0.0
	2.411045006509996e-005,-2.681545591818779e-008
	-2.971139262397671e-007,-2.669258116602061e-004

 125	1.778279410038936e+000,0.000000000000000e+000
	2.399997001391467e+002,-2.681578821575073e-001
	-1.117325440036591e-003,0.0
	2.411044978914276e-005,-2.693923013059156e-008
	-2.998608532589486e-007,-2.681578821575073e-004

 126	1.786487574852064e+000,0.000000000000000e+000
	2.399996973668029e+002,-2.693956395911354e-001
	-1.122482775618415e-003,0.0
	2.411044951063218e-005,-2.706357565451232e-008
	-3.026331970856777e-007,-2.693956395911354e-004

 127	1.794733626832540e+000,0.000000000000000e+000
	2.399996945688068e+002,-2.706391102102018e-001
	-1.127663916319553e-003,0.0
	2.411044922954456e-005,-2.718849512694454e-008
	-3.054311931427467e-007,-2.706391102102018e-004

 128	1.803017740859582e+000,0.000000000000000e+000
	2.399996917449214e+002,-2.718883203849699e-001
	-1.132868972018607e-003,0.0
	2.411044894585608e-005,-2.731399119705368e-008
	-3.082550786293048e-007,-2.718883203849699e-004

 129	1.811340092619616e+000,0.000000000000000e+000
	2.399996888949069e+002,-2.731432966074146e-001
	-1.138098053101345e-003,0.0
	2.411044865954268e-005,-2.744006652623233e-008
	-3.111050931314807e-007,-2.731432966074146e-004

 130	1.819700858609997e+000,0.000000000000000e+000
	2.399996860185215e+002,-2.744040654917838e-001
	-1.143351270463040e-003,0.0
	2.411044837058005e-005,-2.756672378815671e-008
	-3.139814784836048e-007,-2.744040654917838e-004

 131	1.828100216142757e+000,0.000000000000000e+000
	2.399996831155214e+002,-2.756706537751620e-001
	-1.148628735510819e-003,0.0
	2.411044807894369e-005,-2.769396566884323e-008
	-3.168844785739200e-007,-2.756706537751620e-004
